  673
# Step    60000,  Time   60000.0000 fs
Al     6.17963863   11.01533432    8.41520567
H      9.71537605    3.04992152   13.28682896
H     -3.91215345   10.62377352   13.06387297
H      9.10102700    2.06282297   40.54657659
H     -4.03855085    9.37676761   40.70953501
O      6.37356095   10.71922684    6.81053640
O      4.40625302   11.17583925    8.79943274
O      6.98072182    9.88574290    9.39145445
O     -0.21714206    0.40049029    8.95367853
O     13.38286782    0.48557009    4.89892959
O      4.57873798   11.14726384    4.87342879
O      6.86963326   10.16635927    4.17513071
O      9.06412915    0.60886180    8.09297662
O     -4.80907040    9.05212224    7.67259581
O      1.90364673   10.56723327    9.59345564
O      7.35736329    7.29524773    9.08326640
O      9.77657236    0.53213924   10.70539399
O     -4.54811387    8.79828206   10.31063055
O      0.65189738    1.95053110    6.77464211
O     -0.12372364    3.19848600    8.94357410
O      2.12779464    1.62724461    9.09087509
O      1.92515142    1.72114660    4.45439166
O     -0.19535967    3.13430331    4.54042109
O     11.23909497    2.36376595    8.06283694
O     -3.78450254   11.64691564    7.83951780
O      9.53201043    0.51014284    3.57026401
O     -4.54827355    8.95289927    3.59881421
O      2.15326033   10.26601542    4.45162121
O      7.23160949    7.53739725    4.52529560
O      9.93511676    1.92637076    5.81903724
O     -3.65258798   10.25635848    5.57415421
O      1.38230957    9.81058857    6.91946472
O      7.13770328    6.00995488    6.80508440
O      8.57809362    3.06009186    7.70303321
O     -2.19634873    9.48873158    7.48770164
O     -0.05586902    8.96423773    8.90479603
O      7.24306291    4.66632639    9.23898778
O      3.79440506   10.35418356    2.37897204
O      7.14028610    8.62395527    2.04504138
O     -0.03285978   11.63430958    8.12307541
O      9.41503316    6.04450385    8.34737435
O     11.69421967    2.49653655   10.54453251
O     -4.02224236   11.44065448   10.43879297
O      8.97259620    3.05973532   10.32006714
O     -2.12352779    9.56973621   10.36239181
O     -2.12622879    4.82013784    9.27410190
O      4.57545665    0.70866741    9.45277505
O     11.35865981    2.21604620    3.42647406
O     -3.86325703   11.62074671    3.15193936
O      6.70864593    2.01486528    9.30549903
O     -2.21105233    7.38686908    9.00436026
O      8.89293207    3.12178298    3.60716466
O     -2.04805310    9.84762894    3.48502925
O      7.19054727    4.91071280    4.32830200
O      0.04048234    9.05191807    4.85187681
O      0.06748387   11.68277649    5.43180998
O      9.43536937    6.20090565    5.34544419
O      4.58102439    7.76466002    1.88220914
O      4.39309096    0.65944748    4.77827079
O     -2.24774486    4.74277308    4.47397811
O      3.63894655    1.93494813    2.42492521
O     -1.05379213    4.08469823    2.15198907
O      5.51022626    1.52954251    7.06455974
O     -2.19285848    5.93166302    6.88755400
O      1.91871779    8.54145105    1.59601674
O      6.51339659    5.97028604    1.75357091
O      3.82889295    9.31460575    0.02500000
O      6.35147423    7.72872403   53.81026759
O      6.58180232    2.34748505    4.89437296
O     -2.01026190    7.34604026    4.61568148
O      6.64958318    3.40608946    2.27901916
O     -0.53983656    8.06066282    2.44978996
O      1.60361375    3.61292579    1.77777279
O      4.19285048    4.37327467    1.73015885
O      0.59695659    6.06499440    1.68146906
O      4.75770731    8.46059925   51.74597676
O      0.02872944    7.86015912   53.77287155
O      6.13082904    4.17322768   53.85273026
O      2.97110705    2.73939425   53.91300000
O     -0.07222732    4.40849832   53.82428470
O      2.18735674    7.69025299   52.33250697
O      5.15584207    5.96193245   52.30870878
O      2.68058598   10.03061687   51.69363969
O      7.28453425    7.46445549   51.29240058
O      0.22603913    6.03962267   51.79995016
O      4.39248963    3.46056409   51.80372804
O      1.92575877    4.10196226   52.00612247
O     -0.20547794    8.40975923   51.05825458
O      6.90181862    4.20211190   51.35257519
O     -0.76035532    3.54619156   51.46633850
O      2.67857342    1.49447386   51.46047733
O      3.88761902   10.09270323   49.24801106
O      6.17405608    8.68622401   49.03568129
O      1.36266818   11.00250929   49.54015221
O      8.32308073    7.13448021   48.87062740
O     -0.53819809    9.42704985   48.58232485
O      8.19409949    4.18879363   49.07087911
O     -1.22656061    6.89185833   49.11810055
O      5.93729200    2.73376538   49.30286938
O     -1.35551670    4.39487475   49.08013676
O      3.67773055    1.26952636   48.95549099
O     -0.87005018    1.75738815   49.53088087
O      1.23386574    0.29022736   49.49638599
O     10.16574061    0.15331961   50.43533984
O      8.49306074    9.37795410   50.15807644
O     -2.78035048    8.64357549   50.13189244
O      8.29962796    1.98312848   50.39651333
O     10.67907182    2.77354836   50.48927473
O     -3.35916013   11.21154864   50.50136933
O      6.13852128   11.24424202   48.77200878
O      6.12353691    0.10080401   48.35344002
O     10.30427612    5.39423559   48.12233529
O      5.07581429    9.61482598   46.85875892
O      0.80003762   10.58198066   46.84020530
O      8.02106565    5.73171922   46.87165896
O     -1.37045001    5.63540190   46.73447298
O      5.02059701    1.99691016   46.91981106
O      0.22906130    1.08315675   47.23083962
O      9.62139150    1.44781537   48.12721213
O     -3.58311284   10.25383577   48.13750644
O      5.98499200   11.61191166   45.49744885
O      6.01363142    0.09712598   45.23540907
O     10.16236222    5.65452064   45.22019463
O      4.00932965   10.29458004   44.62714709
O      6.31680782    9.13159520   44.52347476
O      1.40566629   10.96347903   44.24487911
O      8.20396981    7.18269653   44.60267036
O     -0.61776603    9.55152767   44.90891657
O      7.82828374    4.65479199   44.40816391
O     -1.41147012    6.96174796   44.41996397
O      6.14942466    2.66737326   44.72561561
O     -0.40801797    1.90291527   44.77916251
O      1.37927367    0.10705200   45.09540809
O     -1.47919926    4.30224299   44.43299221
O      3.76235473    1.37936305   44.86728936
O      9.60039053    0.44302440   45.68965237
O      8.50812423    9.44490296   46.12125783
O      8.42294452    2.62785971   45.99877942
O     -2.61251462    8.58393308   46.11466276
O     11.10428371    2.54002912   46.04376699
O     -3.20508206   10.91389651   45.75105751
O      9.90854621    0.03548742   42.99932483
O      8.53520231    9.40522498   43.35765816
O      8.42446827    2.29601959   43.24112263
O     -2.68223388    9.01877780   43.45067550
O     11.11449859    2.43601321   43.32306494
O     -3.57677468   11.51941629   43.19911657
O     10.04142944    2.35456171   12.66700275
O     -3.45617185    9.78457462   12.57945557
O      9.92911547    1.80536804   41.05548445
O     -3.53615551   10.01082416   41.18760088
Si     6.16380828   11.08914952    5.26234029
Si     3.04993654   11.82141506    9.34154764
Si     8.12046798    8.80594762    9.04746106
Si     0.54808118    1.70395367    8.42614264
Si     0.43956559    1.79995558    5.18519098
Si     3.36028159   11.12627677    3.80945155
Si     7.60016544    8.81295914    3.63991746
Si     9.83146111    1.95670765    7.45127870
Si    -3.67066855   10.12246767    7.21435688
Si     0.82028539   10.22022292    8.40420424
Si     7.82096285    5.87686377    8.35907561
Si    10.11595619    2.11392270   11.10767073
Si    -3.56785944    9.92829376   10.97473781
Si    -1.69649874    3.22677296    9.19252975
Si     3.03829297    0.33039869    9.25118549
Si     9.92347020    1.90701036    4.13040286
Si    -3.59132538   10.25413125    3.91948008
Si     7.77145239    6.11642654    5.28459178
Si     0.91166619   10.28588452    5.43704861
Si     7.82755026    3.15751479    9.14069339
Si    -1.66008335    8.83704645    8.96557989
Si     3.22281146    1.00689081    3.73873281
Si    -1.46509231    3.58924302    3.69779641
Si     5.87201583    0.88068517    8.53691701
Si    -2.81447595    6.02919055    8.36808097
Si     3.44555560    9.02125147    1.54665738
Si     6.14448946    7.54960606    1.39926011
Si     5.85191312    0.97661160    5.50074622
Si    -2.69555974    6.07179684    5.31153025
Si     7.35306113    3.39029208    3.83468888
Si    -1.12057704    8.61112236    3.84623495
Si     3.13934234    3.14880125    1.55701337
Si     0.34359636    4.45950312    1.34522268
Si     0.49183312    7.61603860    1.30925286
Si     5.84395336    4.49444665    1.49415099
Si     3.33920882    8.80053389   52.49872090
Si     5.92719332    7.42481377   52.25676002
Si     0.56252793    7.48737185   52.22812791
Si     5.65425701    4.43212644   52.34914001
Si     0.35235027    4.44322054   52.24650491
Si     2.99821089    2.82696926   52.27969974
Si     2.85837725   10.79871214   50.29243036
Si     7.52336131    8.12900299   49.84646305
Si    -1.25294644    8.39154401   49.74433618
Si     7.25837970    3.24966439   50.06401172
Si    -1.44953821    3.10193418   50.09357485
Si     2.75902479    0.59016577   50.08561456
Si     5.26518604    9.95734813   48.43782061
Si     0.25985035   10.86188788   48.40394071
Si     8.70661341    5.59050432   48.40173757
Si    -1.87822561    5.65696207   48.29184027
Si     5.20051468    1.60504722   48.49304017
Si    -0.10111789    0.51948583   48.67589409
Si     9.79766405    1.56874467   49.80975886
Si    -3.73118154    9.83378707   49.69270895
Si     5.38896311   10.13094438   45.43004209
Si     0.17221678   10.84392779   45.34070046
Si     8.57887598    5.73501731   45.37242752
Si    -0.00876637    0.60072628   45.70319703
Si    -1.92619008    5.63165498   45.20780278
Si     5.28867254    1.50144761   45.35712801
Si     9.73607808    1.82820386   46.53884873
Si    -3.69910450    9.64216615   46.59113169
Si     2.94400943   11.48883397   44.50479906
Si     7.92311697    8.75750693   44.72742023
Si    -1.81612028    8.50658193   44.68244837
Si     7.71944345    2.98010180   44.51257635
Si    11.99968577    2.74164985   44.65153108
Si    -3.73154567   12.11371370   44.70196776
Si     9.82956981    1.61118422   42.65964882
Si    -3.76405319    9.95065793   42.78007808
H      3.34495434    8.23715096   24.80212048
H      4.35757810    7.15737843   24.22368678
H      4.60872867    8.99354663    8.67820703
O      3.71744140    7.83471630   24.01462151
H      5.85678023    1.09064981   17.58848948
H      4.29727765    0.83951241   17.97589127
O      4.96940954    1.48850658   17.60754350
H      0.28314020    6.53117276   17.68974947
H      0.51388618    6.28993081   19.25778069
O      0.94031241    6.52088011   18.42350568
H      5.88175061    2.26154991   33.17705540
H      4.65994534    2.57323894   34.01507767
O      5.36656438    1.94655584   33.93288491
H     -2.84460147    7.53294166    0.63256791
H     -3.85942853    6.43794566    0.95104617
O     -3.61980324    7.10666620    0.36263579
H     14.13136588   -0.26977432   30.14048958
H     12.64676480    0.53545536   29.83636266
O     13.22443367    0.03108347   30.49758771
H      7.58168249    1.15194153   26.61924225
H      8.62729085    0.60770538   27.73409096
O      8.46451297    1.27173027   27.04142983
H     -0.55046959    6.54152965   36.76273156
H     -1.23161507    7.85275313   36.29379374
O     -1.43611892    7.01691099   36.76888004
H      8.65983223    3.31452377   39.13007404
H      7.56152643    2.27940688   38.96058382
O      8.05324902    2.74860119   39.65569998
H     -5.26556672    9.25909617   21.55543228
H     -4.70635626   10.83527078   21.71446485
O     -5.10655017   10.13334358   21.08885403
H      1.68788732    9.35551004   18.42109385
H      1.98008579    8.03036370   17.87530912
O      2.08964629    8.97465031   17.57359355
H      9.83251231    4.70141106   18.07696101
H      9.19697614    3.99609175   16.85129134
O      9.82808997    4.74201949   17.05489535
H      4.56674475   10.01159375   37.86125958
H      4.64211256   11.36657338   38.64340595
O      4.07562914   10.86106640   38.02884718
H      2.45555220    8.30866535   34.89230156
H      1.20610236    9.04054303   34.28599496
O      2.05145855    8.59916876   34.01784063
H      0.26956135    0.33293915   15.83020532
H      4.26744005    1.49630537   26.74519143
O      1.27197286    0.31840056   15.96354258
H      4.92974284    0.56866425   53.39101013
H      5.97476678    1.41293917   52.90887202
O      5.04490494    1.33905903   52.88412491
H      4.62627390    2.27584584   28.08000631
H     12.24116544   -2.02373575   27.54997696
O      3.89202862    2.01816392   27.52346420
H     16.13559314    2.46609489   26.55025897
H      7.59155577    6.59320454   15.65516231
O      7.24872791    7.51324236   15.44423671
H     10.01029611    6.33342145   51.89156884
H      9.52587300    4.91244504   51.52589900
O      9.82249135    5.77012746   51.11828611
H      3.36625111    3.66111761   35.18145461
H      3.82070295    4.66796088   34.03859604
O      3.67363720    3.76545887   34.25042264
H      7.44147499    3.20278695   17.04901814
H      8.08831917    1.96103101   16.29730569
O      7.80666073    2.91452263   16.19271629
H      3.15746724    4.84402526   12.84848812
H      1.67164253    5.29305796   12.64800181
O      2.52669346    5.60989962   12.92093349
H      6.94249147    3.58350420   23.14990252
H     -0.65407049    8.33656816   13.24571003
O      3.98453458    2.79587544   15.71261095
H      5.38150970    5.99578506   11.26459262
H      6.28103671    6.98066606   10.88385867
O      5.88768952    6.73341937   11.73355472
H     10.46810437    7.29317450   37.35509079
H      9.64006222    5.95239906   37.37095738
O      9.61851157    6.88945063   37.63076037
H     -2.47234386   11.65036423   23.82037956
H     -6.94026465   15.49496494   15.36273730
O     -2.09470618   11.52763265   24.77639184
H     -1.94753329    5.59833815   13.83577414
H     -0.77050842    4.65960001   13.71803951
O     -1.47563580    5.16057815   13.12445813
H      6.93192967    4.79290999   22.14824051
H      3.89734753    9.26366105   17.28138833
O      6.35283507    4.18623264   22.67852427
H      5.48947378    1.12002385   29.55452532
H      4.35170632    1.56332476   30.51237520
O      5.21750755    1.05694695   30.50913123
H     10.69814869    4.10829166   38.31227247
H      9.92622012    3.11364006   37.30786605
O      9.75896134    3.84474528   37.98421154
H     -1.09797312   -0.00152195   19.27763124
H      1.09198072    4.22198756   15.05256247
O      0.57158601    3.46729218   14.76233039
H     -1.63089854   10.22856441   29.91785989
H     -1.40291769    8.71646344   29.49773102
O     -1.70880900    9.62809635   29.16158074
H      8.60580072    7.13618435   12.12042695
H      9.61727464    7.89664167   12.97029458
O      8.84807325    7.23718156   13.07159683
H     -2.11348218    4.36858655   30.97901331
H     -1.20417841    3.28769029   31.06360168
O     -1.49725427    3.86598321   30.35416389
H      1.61518502    1.20434301   15.79402135
H     -2.45784420    3.77202277   16.86574776
O     -1.61855180    3.22866945   16.68073112
H      2.35484079    1.90207204   40.20318565
H      2.87769112    0.61184115   40.53230917
O      3.12946877    1.37665048   40.01232315
H     -0.92025727    3.11594288   19.58276658
H     -0.25598648    3.95325888   18.63438875
O     -0.30518757    3.91735163   19.61341301
H     12.60317672    7.21161818   16.32883228
H      4.49039820    9.87464888   26.38981049
O      5.43718735    9.73798617   26.62663262
H      0.26048700    9.00125591   16.87537160
H     -0.91033782    9.44087974   15.96461327
O     -0.71731411    8.87332652   16.73308884
H     -1.88203075    6.48547109   29.22333439
H     -3.22922379    7.07739058   28.55962308
O     -2.73261171    6.30822296   28.87301975
H     -4.05849843   10.54575675   53.67475061
H     -5.13966770    9.51842391   53.77560754
O     -5.02392564   10.46522957   53.84049327
H     -0.00503015   12.09294617   31.91844106
H      1.41765622   11.68265657   32.22162575
O      0.82958705   11.91240861   31.49319394
H     -0.47182663    1.26019334   31.52569950
H     -1.14232415    1.49523307   32.87393072
O     -0.67495384    1.98498672   32.14375519
H      1.60611167   11.80390875   41.40660203
H      0.12477899   11.52526895   41.77891193
O      0.66748186   11.89663105   41.10149756
H      5.97786466   11.19003651   33.77137511
H      5.88827418   12.35521736   34.80925336
O      5.53688297   12.03434745   33.92129019
H      4.86262616    5.91772045   32.44547031
H      5.69557258    4.96543731   33.27168518
O      5.18434508    5.77608938   33.35096032
H     -1.11154911    5.34475704   35.06950614
H     -0.14742930    4.68655445   33.91448209
O     -1.06863298    5.09142613   34.07658332
H     -3.28948595   11.11658961   35.18815816
H     -2.04486338   12.04611300   34.76506278
O     -2.61712508   11.25517675   34.51193487
H      3.68691102    6.71137637   31.04451938
H      4.91024748    6.33117363   30.17704795
O      4.61647201    6.99204614   30.82027283
H     10.04226186    6.66764224   24.27365309
H     11.71495735    2.42500644   16.33168933
O      9.45840688    5.94511932   24.09659333
H     -3.97619733   12.69656669   13.17310906
H     -4.94880352   12.18578376   14.41820684
O     -4.46445807   11.91587260   13.55177865
H      7.79098002   -0.37854515   18.99183270
H      8.00150785   -0.46316265   16.21400586
O      7.66202189    0.22334721   18.20345319
H      3.95388308    9.07894455   22.05624691
H      4.82315853    9.67552113   20.83199275
O      4.08454360    9.81283826   21.43388321
H      2.16046308    9.98219385   20.53147463
H      0.58745042    9.85863284   20.42973324
O      1.41153260   10.17220198   19.92361964
H      4.70584375    4.90783424   26.60619023
H      5.63825355    5.92488642   26.83507017
O      5.01959197    5.48334008   27.34209975
H      3.66641615    6.28934137   28.01400742
H      2.15465929    5.99126293   27.81317255
O      2.77609305    6.72808128   28.12265153
H      1.80343577    7.82419091   11.12569975
H      0.99313048    8.08230192   12.37412654
O      1.91023583    8.37085540   11.89964847
H      0.93610832    2.36605881   22.95090455
H      1.74626146    2.65605579   24.31843799
O      1.83957359    2.54957873   23.30796312
H      9.21725053    3.03191446   28.46544498
H      9.51502852    4.39479217   28.80763979
O      8.74208264    3.81763306   28.67341114
H      6.01246477    3.94925723   31.20432642
H      7.39305806    3.64958728   31.90800305
O      6.53360496    4.18520609   31.95849168
H     11.62028210    2.30222365   29.64416006
H     11.29342771    1.93865577   28.22111101
O     11.29470484    1.57210846   29.13526472
H      8.07852175    5.57788584   41.33283400
H      7.16329796    5.81174764   42.47203534
O      7.25768149    6.10327886   41.48317007
H      8.50495497    0.98667285   22.79404971
H      7.32383011    1.84656802   22.11050950
O      8.33074748    1.77671313   22.15476901
H      4.41273641    3.63058074    7.11335434
H      3.41074156    5.21788590   10.30789937
O      4.67581605    4.26842212    7.81724005
H     -3.94582252   11.18586479   30.18166992
H     -4.11692757   11.39162940   28.62686679
O     -4.56894009   11.54600839   29.50110251
H      5.83596444    4.50577591   38.68971290
H      6.14634923    5.78747052   39.43767238
O      5.60025932    5.41966336   38.74550788
H      5.16796562   11.38303770   22.52826787
H      6.14909700   11.89086424   23.53417143
O      5.69857481   12.17354725   22.73767196
H      4.20644775    3.30841177   11.69933609
H      5.16891430    2.20683993   12.13871758
O      4.34848992    2.68956851   12.43067919
H     13.68636080    0.17773395   53.31377121
H     13.63191912    1.05324362   52.08181195
O     13.17153321    0.87125612   52.90163944
H     -4.23085879    9.14873798   27.26624265
H     -2.62820151    9.20235224   27.90547276
O     -3.35592766    8.66125144   27.45012377
H      2.07342239   12.26643747   15.06336124
H      1.83715487   12.92781118   18.31600219
O      1.28368774   11.73293826   15.15883908
H      7.72163302    9.63750903   32.31479085
H      6.63736679    8.71810320   32.94393808
O      7.29322431    9.41660087   33.14734856
H      8.30995051    4.50173953   14.18045904
H      9.23895645    5.02712621   13.12383679
O      9.26454272    4.45758150   13.89928320
H      1.57090353    5.25345050   36.53521923
H      1.73915694    6.23086554   37.78752272
O      1.21542254    6.10284484   36.94995846
H      2.32574018    0.89458663   19.09069837
H      4.92633498    5.08501314    7.35919602
O      2.75699823    0.05667070   18.86287748
H      2.81840283    8.25397836   12.42778317
H      4.79396151    7.75254623   12.36863281
O      4.01876695    8.34254189   12.94577264
H      7.39939180   -0.34398928    2.35464490
H      6.89514955    0.92995023    1.75405053
O      6.62917167    0.30195746    2.46042532
H      1.03525812    5.66524459   23.66699262
H     -0.46651294    5.00359718   24.02983707
O      0.31411236    5.63727049   24.28603330
H      3.60461430    3.75098907   25.04348741
H      4.90061849    4.07962168   24.04995574
O      4.58659714    3.92285072   24.97110526
H     -2.29543689   10.71390616   37.96984611
H     -2.11768412    9.24281804   38.28924189
O     -2.32420522    9.84086541   37.61378021
H     -3.24816126    7.57268905   33.15669102
H     -2.02638243    6.72087842   33.53797203
O     -2.32950313    7.71647924   33.53566598
H     -0.12969202    7.59346476   24.06846871
H     -2.51854793    4.95515846   20.29749804
O     -0.08849069    8.58775678   24.19046686
H      2.05887574    5.28772017    4.81802348
H      2.67192944    5.89989064    3.47143935
O      2.55373873    5.08058276    4.00314834
H      2.44327734    1.09024859   22.92341868
H      1.81719865   -0.18712842   23.61177172
O      2.36835265    0.03892007   22.83096741
H      7.02904911    9.89668563   19.21368485
H      5.85406990    9.75387513   18.41301537
O      6.13321694   10.23560945   19.21082371
H      2.54352748   12.47879353    0.64581980
H      2.06509960   11.14144564   -0.09697830
O      1.76503309   12.01088316    0.22949002
H      3.27629448    1.53190730   36.99015373
H      3.46716122    0.94894113   38.39188318
O      3.73727609    0.72778916   37.43476761
H     -1.98212037    5.95180156   16.60100154
H     -1.76291243   10.66231012   24.80190699
O     -1.05206356    6.22640882   16.46314546
H     10.76310339    2.29017654    0.90533523
H     11.59945829    1.21232762    0.12186340
O     10.67194475    1.46240573    0.41611983
H      7.35287450    7.37000177   25.86205157
H      6.09623773    8.10832807   26.54360605
O      6.53628539    7.18875116   26.37062911
H     -0.05471684   10.54341858   14.27316797
H     -1.46361069   10.44861765   13.77581780
O     -0.80501367    9.95918538   14.17761142
H      1.52967101    3.79262548   26.25740355
H     -4.72888781    5.61011921   24.93083576
O      2.12082942    3.06865269   25.83367042
H     12.16213038    3.70250936   26.55607854
H     11.71854904    2.29733002   26.03819395
O     11.52392071    2.98784696   26.74906125
H     10.67709334    1.38570400   19.69777275
H      9.31938462    1.92815292   20.44277682
O      9.89938346    1.96652190   19.64176214
H      1.95513490    6.92750004   32.91438303
H      1.75372462    5.53588701   32.25079275
O      1.96565673    6.47924523   32.01076583
H      4.68513117    8.92672744   29.94135284
H      5.68124925   10.26701189   30.17249886
O      4.84322003    9.92166219   29.78963636
H      0.09789212    3.33892561   40.71275034
H     -0.08137087    2.06169889   39.72831366
O      0.41262018    2.44957855   40.48093883
H      5.84052466    2.52537183   35.50816278
H      5.33249624    2.16180787   36.95462554
O      5.55600300    2.97889534   36.39874645
H     20.80239304   -3.55521317   25.09585992
H     12.78058032    0.63134338   20.72073712
O     12.60940075    0.84970571   19.76914435
H     10.53326784    5.12304601   40.61750983
H     10.39556960    4.34268118   42.02495412
O     10.11049230    5.12657904   41.49135981
H      7.81894743    1.17619079   36.10688345
H      8.69542051    0.40839153   35.22325608
O      8.60210139    0.60384953   36.15493277
H     -2.53009760    4.69089655   23.54915440
H     -2.01864732    3.21162756   23.59124941
O     -1.68532512    4.22115027   23.47731930
H     11.33874483    0.50965423   15.54000452
H     10.54890160    1.41761987   14.57488018
O     10.61569515    1.13577678   15.50970198
H     -0.25901300    5.32839068   28.19903249
H      0.06143833    5.58041136   26.67462476
O      0.38311419    5.10366927   27.41975699
H      0.86302848   11.20738174   39.10922861
H      1.31159077   11.31362426   37.63614503
O      0.52970877   11.10073386   38.20163510
H      1.47372771   10.14067249   23.68671705
H      1.95994532   10.98513593   24.85860426
O      1.40267551   11.07042615   24.06929667
H      4.85714978    1.95209372   22.17211014
H      5.42630420    0.55446931   21.66357595
O      5.34547994    1.16730369   22.41447288
H      2.19611752    9.59790868   26.89303426
H      2.41427381    8.15410415   26.91063995
O      2.43757351    8.89208831   26.26109939
H      8.63834046    7.99252816   37.03231032
H      8.19878415    8.31144937   35.59494418
O      8.00619951    8.69691377   36.49253469
H      0.17757452    6.24357763   41.62601588
H     -0.58317891    5.35942756   42.56277506
O     -0.10895071    5.33008667   41.69136560
H      8.97700304    5.30635351   21.12610203
H      8.49041881    5.95552197   22.43584138
O      8.21773619    5.78368030   21.50834834
H     -4.56558427   11.24847822   37.14000125
H     -5.19821113   10.22853857   36.31784074
O     -5.04581509   11.16331101   36.25598168
H     -2.80587409    9.42969247   31.85282142
H     -3.56404876   10.56326959   32.35192093
O     -3.46633720   10.08591894   31.54886023
H     -0.00174630    6.18349134    6.69781924
H      0.40576159    4.99709700    7.41621333
O      0.82445634    5.73479933    6.97691680
H     -0.91995015    9.36613245   34.69020379
H     -0.12567822    9.87482131   36.02322262
O     -0.07854894    9.29453095   35.22716892
H      3.21943498    7.28021607    9.03012797
H      1.85921398    6.33131422    8.71228892
O      2.48273881    6.66083062    9.36791393
H      2.52098580   10.62896280   33.91274326
H      3.69061239   11.46838985   34.06915248
O      2.76491917   11.55484135   33.79336979
H      7.81620642    8.15094090   40.77958700
H      7.84361206    8.22623039   39.13214785
O      8.04784128    8.74380572   39.97417957
H     -1.52994910    9.85833858   21.53757373
H     -1.71641575    9.50912781   20.02830579
O     -1.07535750    9.88026726   20.62663984
H     -3.30187700    8.58221729   18.45465966
H     -1.89270848    8.27850136   17.87432661
O     -2.40921248    8.30018680   18.72711286
H      3.53059858    8.77337057   40.32966996
H      2.77908685    9.47180175   39.07252104
O      2.79905783    8.73977425   39.69966035
H      5.37010803    6.90873114   14.98414449
H     -0.51779626    6.66340712   12.85523568
O     -0.20531517    7.64227476   12.67309625
H      3.31841437    5.91166570   39.98301908
H      2.71476107    7.13310098   39.46497756
O      2.48427347    6.17257753   39.53211568
H      3.87240880    2.17123666   14.96082334
H      4.42003054    4.16580187    9.69336341
O      4.21130488    4.65696379   10.53585375
H     -5.41499759   11.44864118   26.36160032
H     -3.95825630   10.94909396   25.95194503
O     -4.86752957   10.65947373   26.23356865
H     -2.21842069    6.98149720   26.87650325
H     -1.89507938    7.98351543   25.96237920
O     -1.82217495    6.98215898   25.97197763
H      7.12488449   11.67088990   40.69853729
H      7.13794387   10.19875204   40.01999773
O      6.99410283   11.15711491   39.90311246
H      3.19133909    4.27513923   15.88559652
H      5.65857071    7.89068159    8.62095930
O      4.75583737    8.13855407    8.94767372
H     -1.40343286   10.77562790    0.78948643
H     -2.86839824   11.34909300    1.31795721
O     -2.32111225   11.24271921    0.53782063
H      0.49181795    3.07433543   32.73361821
H      1.93495666    3.71109533   33.34322085
O      1.07113948    3.89374729   32.81780673
H      9.99286120    1.97470777   23.29631578
H     11.44964368    1.19531312   23.18955261
O     10.86435099    1.82461917   23.73858780
H      3.13219792    3.63107979   37.69579199
H      1.61750176    3.29599882   37.38221873
O      2.53169437    3.23193165   37.05497212
H      5.21555959   10.46826424   15.72426407
H      6.07727419   10.77289244   14.45704309
O      5.66030496   11.23580642   15.24208124
H      4.01758949    7.93572942   13.85746430
H      9.10056673   11.56237161   18.80237617
O      4.86657774    9.19835157   17.11798503
H      6.46216666    8.52085913   36.69026630
H      5.17808876    7.62279456   37.05287256
O      5.41164000    8.55151899   36.82552250
H      7.97489946    4.48848849   26.83229046
H      8.81244131    3.84246443   25.77697019
O      8.18093000    4.57200607   25.89326154
H     -0.01221912    1.84628660   37.20450025
H     -0.85550769    3.24576561   37.13290487
O      0.08624847    2.88141545   37.13939740
H     -1.76456865    5.66750957   38.89078186
H     -1.29359731    4.65600171   39.98768142
O     -1.80341728    4.72895893   39.17796145
H      3.87346286    6.49836195   15.44420325
H      4.89948290    8.37828672   16.57616606
O      4.45907382    7.26207786   15.28386171
H      5.84187244   12.14428998   25.49974204
H      6.64352762   10.89664214   25.75008200
O      6.72302637   11.80318471   25.35654489
H      0.46177287    6.60288637   30.73043146
H      0.99859262    7.29889323   29.49220058
O      0.17526532    6.81940370   29.78885171
H      5.59382994    2.62562624   25.57295918
H      6.00043559    1.22054440   24.79896336
O      6.24051351    1.89837731   25.54175199
H     18.24032956    2.31357313   16.40960141
H     10.29294835    3.73816918   20.36697775