  822
# Step    60000,  Time   60000.0000 fs
H      9.26615277    1.74995415   40.66072765
H     -3.63251609   10.12709961   40.60963818
H     -2.54060968    9.74102509   13.26412669
H     11.29856667    1.93295000   12.96085948
O      2.48727007    7.71567448   52.31385604
O      0.41035529    6.14051993   51.93830098
O      5.02831690    8.28035830   51.67462732
O      1.99161883    4.12805210   51.95106634
O      4.54262421    3.46449950   51.83205641
O      3.82889295    9.31460575    0.02500000
O      5.70902736    5.79937457   52.05444001
O      0.44673069    8.00999697   53.86791869
O      6.57285905    7.68748183   53.77092803
O      6.17778182    3.82213140   53.87946301
O      0.13934979    4.21287706   53.97099303
O      2.97110705    2.73939425   53.91300000
O      6.43969819    5.63986941    1.80156088
O      4.71201542    7.50425321    1.53607973
O      2.19900357    8.16883061    1.99807754
O      4.26636098    3.99527507    1.72577334
O      0.45649167    6.13899782    1.90027235
O      1.69071578    3.71097961    2.01616934
O      3.23633866   10.23835326   51.64769702
O      0.15382488    8.62472956   51.32928551
O     -0.52336695    3.69812717   51.44925343
O      2.53314616    1.71659617   51.38151931
O      7.13805655    3.45425606   51.51429623
O      7.46333727    7.57640179   51.28661754
O      7.14025964    8.28895002    2.19287065
O      6.69816896    3.09428763    2.48863996
O      4.27409703    9.88190151    2.66135852
O     -0.23551331    8.45036223    2.47812272
O      3.35228717    1.56402038    2.22384055
O     -0.87624715    3.83344984    2.39311147
O      1.88412174   11.16688698   49.45714806
O     -0.20442209    9.53955722   48.93561461
O      4.24476855   10.34209231   49.20045209
O     -0.91487326    7.04975316   49.30148342
O     -0.77369378    4.38138079   48.96866945
O     -0.39461094    1.93814481   49.56963453
O      1.69200894    0.47202114   49.32410838
O      4.08155598    1.58241299   49.13967434
O      6.67224846    8.91334077   49.19051661
O      6.18889359    3.01176212   49.03859821
O      8.13714599    4.84688465   49.29610131
O      8.88128521    7.45869585   49.03399619
O      7.25334894    7.16864117    4.61659933
O      6.89057211    9.79556800    4.34746965
O      7.32962483    4.58478283    4.58757798
O      4.68626884   10.95863494    5.09628809
O      7.09527904    1.97734666    4.96921415
O      2.27295136   10.09807796    4.29260040
O     -0.03398892    8.79634404    5.02011099
O     -1.90869250    7.13331643    4.07962764
O      4.84571515    0.68486404    4.19913791
O      2.27461582    1.60084318    4.72412962
O     -2.04654984    4.55375670    4.67882659
O      0.09805369    2.95688295    4.71639143
O     10.47346251    0.44092877   50.59885141
O     -2.32770159    9.00913706   50.36439162
O     10.98453103    2.95835646   50.26799781
O     -2.83642869   11.55057574   50.44181238
O      8.49039937    2.13237229   49.84494241
O     -4.84553208    9.67815653   50.46146359
O     -4.63011855    8.81304256    3.65203364
O      9.11325202    2.79028708    3.46745342
O      9.89225620    0.20018182    3.30528572
O     -2.09294290    9.87005372    3.59959597
O     -3.94862585   11.43500024    3.38773345
O     11.58021183    2.12583460    3.71675576
O      6.23807674    0.14720486   48.80836134
O      6.48091196   11.57910485   48.89444707
O     10.66373001    5.58479924   48.49548981
O      9.55990391    5.90904131    4.99776058
O      0.24838476   11.55148799    5.39959033
O     -0.13230939    0.25970809    4.82195032
O      1.24688967   10.87820786   47.10146554
O     -1.10216886    5.95498404   46.91611605
O      5.50341206    9.68262105   47.05196858
O      0.51590004    1.33684255   47.11943132
O      5.37068397    1.89373316   46.92693667
O      8.53952728    5.68237810   46.96644021
O      7.67536023    5.81215913    6.94306927
O      6.55291796   10.56865593    6.80678923
O      1.45526131    9.80179110    6.90464469
O      5.37079823    1.05402819    6.72479239
O     -2.17393999    6.54212264    6.53193305
O      0.84566215    1.50073513    6.91095063
O     10.43504084    1.47065292   48.12141709
O     -3.46880856   10.03757460   48.24726126
O     -3.69244046   10.03185244    5.66232200
O      9.70757665    1.39049189    5.59690714
O      6.37508947    0.19471573   45.35834170
O      6.52889778   11.63091196   45.31572630
O     -3.29222541    6.18047243   45.36554439
O      9.88345387    5.60267907    8.27740917
O      0.22396884   11.76864799    8.41605882
O     13.38957070    0.14395641    8.85153583
O      1.90759735   11.16556549   44.37484461
O      0.02334105    9.65855875   44.99324316
O      4.41585391   10.35969595   44.66881481
O     -0.91244722    7.25728231   44.70455351
O     -1.14661602    4.62660405   44.63926251
O     -0.66130846    2.07559265   44.86051830
O      6.63248517    9.08340011   44.83812723
O      1.54500407    0.87276035   44.60190350
O      4.04142550    1.31410261   44.69795446
O      6.45912430    2.70029982   44.70188409
O      8.10838909    7.09181295   44.80739010
O      8.44745695    4.51219560   44.57509727
O      7.81043878    7.09256278    9.13103620
O      7.78617648    4.38488990    9.42236717
O      7.38512841    9.77129728    9.28289249
O      4.99959224   10.33175479    8.92833024
O      2.45434202   10.52246788    9.36020838
O      6.50029469    2.17843706    8.96198679
O      0.17751208    9.15794741    9.03192806
O      4.50565625    0.44547025    9.13696998
O     -1.88030835    7.46444901    8.93777443
O     -1.56518993    4.86585178    8.57651947
O      1.97394169    1.41779729    9.28641014
O     -0.16594604    2.78506271    9.03039313
O     10.30163701    0.39259653   45.83315343
O     -2.24471053    8.93063126   46.17759202
O     11.00673114    2.97337977   46.08369226
O     -3.37078426   11.15298213   45.72423680
O     -4.91471508    9.06120831   46.32028718
O      8.42897466    2.39916951   46.37408396
O     -4.41544916    8.78124993    7.71473919
O      8.70411176    2.57646709    7.73166777
O     10.16087494    0.23883608    7.82653412
O     -2.02222226    9.85597923    7.78280855
O     -4.29378072   11.41765836    7.79525189
O     11.45469914    2.55917056    7.42235068
O     10.63826285    0.34321187   43.19999919
O     -2.03100752    9.49786700   43.46797327
O     11.14841700    3.08092821   43.25043481
O     -3.57019634   11.54434076   43.04875285
O     -4.76261373    9.23026858   43.51300300
O      8.78161210    2.06424908   43.51084262
O     -4.42023486    8.66949464   10.55368288
O      8.78937476    2.07654002   10.40552954
O     10.80950323    0.25608701   10.33192561
O     -1.93075699    9.59375863   10.57959331
O     -3.96890405   11.24877472   10.51122418
O     11.28840551    2.85318997   10.09178953
O     10.09825837    2.05047217   41.07249563
O     -3.34572374    9.42131199   41.26284714
O     -3.33671647    9.89396065   12.78513457
O     10.37497442    1.79766389   12.62839019
Si     3.63923615    8.86346848   52.40833365
Si     0.83660602    7.64810179   52.32188167
Si     0.43407118    4.55431130   52.43038479
Si     3.04588158    2.97462322   52.32135218
Si     5.88505859    4.21524369   52.28477162
Si     6.17548657    7.34254882   52.23821979
Si     6.29493571    7.21264268    1.29022265
Si     5.86151618    4.09103878    1.45906158
Si     3.69762325    8.76007967    1.57176379
Si     0.76574173    7.70440726    1.47522841
Si     3.06351221    2.99237913    1.48924289
Si     0.41104391    4.55805939    1.57003539
Si     3.25259343   11.05244760   50.26342890
Si    -0.85848445    8.48889257   49.94460638
Si    -1.12572146    3.22389059   50.03392439
Si     3.04485787    0.86732836   50.06476861
Si     7.61548102    3.47016412   49.91616261
Si     7.95078526    8.40177376   50.00704853
Si     7.54710564    8.46570635    3.69521652
Si     7.54282896    3.15585347    3.87932070
Si     3.61590908   10.78646852    3.81228215
Si    -1.08761321    8.58568530    3.84544061
Si     3.27274879    0.81676770    3.65825881
Si    -1.22639746    3.41933601    3.90074959
Si     0.54461253   10.94282181   48.52102995
Si    -1.51135486    5.75741037   48.45349999
Si     5.71110756   10.11063865   48.60240394
Si     0.27319667    0.75828661   48.65996315
Si     5.58035232    1.64805175   48.52636062
Si     9.06697834    5.94312895   48.50567428
Si     7.94304112    5.88412998    5.33656993
Si     6.30236971   10.90433533    5.27002477
Si     0.96212514   10.10385064    5.36491930
Si     6.02669755    0.75122255    5.30632000
Si    -2.53265837    6.00088631    5.05364334
Si     0.70339837    1.58582974    5.29945670
Si    10.00973767    1.68744121   49.74683977
Si    -3.39496265   10.15324210   49.86724708
Si    -3.62708218   10.01469615    4.07211731
Si    10.07207585    1.64584038    4.04391105
Si     0.74128735   11.07008688   45.53869090
Si    -1.70232678    6.05127998   45.40737417
Si     5.78488690   10.22334103   45.46568453
Si     0.16398999    0.86637480   45.53335268
Si     5.50486656    1.52691626   45.39480738
Si     8.79093048    5.85303902   45.41387962
Si     8.30822517    5.65167242    8.48487993
Si     6.48644316   10.80196914    8.41109236
Si     1.12351997   10.38391831    8.42237431
Si     5.77621531    0.80620225    8.28042063
Si    -2.39182340    6.17789672    8.04152299
Si     0.54257508    1.48314833    8.48387532
Si     9.99061491    1.83881633   46.57619865
Si    -3.49698053    9.82344872   46.67075682
Si    -3.54376852   10.05342768    7.21230096
Si     9.97335368    1.71146444    7.19451428
Si     3.43679342   11.64735100   44.48069580
Si    -1.34862584    8.82684436   44.80670024
Si    11.95923130    3.15418600   44.71248004
Si     3.00700446    0.09446459   44.51923543
Si     8.20317197    8.64569510   44.84619307
Si     8.04314609    2.91024247   44.71773382
Si     8.52945690    8.61851661    9.12902106
Si     7.94718518    2.79719341    9.18762725
Si     3.78721693   11.39081485    9.14101572
Si    -1.45564508    9.00523424    9.09257075
Si     2.88624989    0.08530082    9.16065570
Si    -1.72293046    3.27240992    8.75158911
Si    10.22140379    1.86908263   42.67058631
Si    -3.42351004    9.92642124   42.78740295
Si    -3.41273190    9.89785676   11.15098773
Si    10.31350508    1.71636615   10.96177911
C      2.39062204    7.37610367   47.87220719
H      3.02873261    6.55190247   49.66628133
H      3.23024662    8.12198532   47.98483123
H      1.42884165    7.98498049   47.79530918
H      2.64174013    6.74497911   47.05064398
O      2.23133814    6.61233961   49.12867470
C      3.19547207    1.66524821   15.51910696
H      2.23891820    0.90231658   17.16519535
H      2.36418571    1.55471755   14.79786895
H      3.70122643    2.59033499   15.22435961
H      4.06793448    0.94205895   15.34900043
O      2.73359633    1.68286678   16.91150287
C      5.30425022    6.10547382   47.54138805
H      4.78383181    5.34035198   49.19809909
H      4.31407640    6.17508342   47.05124427
H      5.82136161    5.31209617   47.15995978
H      5.90411611    6.96903322   47.22041849
O      5.15571096    6.13421512   49.00180569
C      6.76464705   11.34152651    0.43867343
H      7.85969838   11.29154460   -1.19205820
H      6.45565697   12.50069196    0.27998926
H      7.02267409   11.31750068    1.47281444
H      6.13251887   10.53265799    0.05786100
O      8.05350905   11.03517690   -0.27356716
C      9.93015135    6.26250330    1.71112569
H      9.40775415    7.73689838    0.58453231
H      9.41557084    6.52289159    2.62434355
H     10.96454518    6.58443238    1.79847474
H     10.02538648    5.18603440    1.66662218
O      9.14675851    6.78887449    0.61874409
C      8.08699775    2.42671513   38.34121227
H      7.12436062    2.21703483   40.15110856
H      8.97348144    1.85819963   37.99224986
H      7.25391125    2.18456362   37.65077934
H      8.46207974    3.45144980   38.47968037
O      7.81731872    1.71044351   39.54780191
C      5.56902877   11.73907259   35.89999599
H      4.36419306   10.96953493   37.29622834
H      5.90788536   11.62896871   34.87005459
H      6.58378052   11.75777007   36.36841444
H      5.09695440   12.81096655   35.98142501
O      4.57508430   10.79246589   36.24486313
C      8.27718454    7.48542290   14.08559986
H      7.29999277    6.60956522   15.54211239
H      7.56808497    8.27084364   13.89563201
H      8.02310503    6.75701829   13.27236852
H      9.31755588    7.88306350   13.81482290
O      8.24276050    6.90009845   15.34279849
C     -1.51857329    8.00079407   38.20920350
H     -2.76568893    8.03433464   36.57061147
H     -1.87240719    8.61223517   39.14137623
H     -0.90396791    8.71611807   37.69742895
H     -1.09785590    7.03850473   38.36434182
O     -2.78800689    7.84324655   37.59115918
C     -2.85422892   11.25425701   19.79669226
H     -1.65296224    9.86818881   18.96530526
H     -2.90604622   11.60083569   20.92225094
H     -3.17673014   12.13040418   19.21364695
H     -3.69937668   10.67148445   19.72640030
O     -1.59886151   10.62633325   19.57073993
C      3.70176611    7.31014161    5.83642407
H      3.75355681    6.34175120    4.09261972
H      3.35872617    8.33108658    5.79298748
H      3.00063391    6.66247970    6.27942145
H      4.59199883    7.33840044    6.55538711
O      4.35153226    6.82221959    4.63701203
C      0.72492607    5.69214520   23.89774512
H      0.00413572    7.26974234   23.06501070
H      1.79684126    5.71252044   24.17050330
H      0.43207888    4.61119938   23.66259384
H      0.27053376    6.04518368   24.76294924
O      0.47004328    6.47465373   22.76113913
C      0.01422878    0.90547521   13.75239880
H     -0.09147322    2.70425880   12.65560047
H      0.74214822    1.07222931   14.52952732
H      0.38127943    0.44835773   12.85074584
H     -0.84129562    0.32186514   14.13007229
O     -0.59528127    2.17582381   13.27755420
C      5.10569335    5.63078883   43.78615388
H      6.19042836    5.33060893   42.08900476
H      5.21015938    6.68648917   43.68204432
H      5.66410578    5.24909755   44.52253677
H      3.99556708    5.52205151   44.00610820
O      5.38624217    4.99680294   42.53387941
C     -6.12281909   10.35357852   16.47151869
H     -6.51520385   12.28268267   16.68742219
H     -6.65381251    9.99662688   15.57249342
H     -5.23774310    9.78328362   16.57729402
H     -6.59602308   10.03961296   17.31982653
O     -5.79616064   11.69809668   16.39285456
C     10.76031268    4.18700685   26.09799745
H     12.06475985    5.70292394   26.72803875
H     10.41018322    3.13983433   26.67065572
H     11.16777683    3.89163085   25.13791586
H      9.85019211    4.75750313   26.05474766
O     11.64363940    4.84981060   27.01699027
C      6.72216650    3.17099395   16.24191914
H      8.16943275    4.15065366   15.14920856
H      7.16965372    3.29790276   17.23246689
H      6.87537339    2.11986574   16.13517510
H      5.56158358    3.26927076   16.29051890
O      7.19606590    3.92004709   15.13294080
C      5.79725988    9.92647181   12.59731737
H      3.92578391   10.01446006   12.85808468
H      5.82393768   10.99504239   12.19210918
H      6.05753267    9.96988394   13.63599809
H      6.57376484    9.30362765   12.13392298
O      4.45520797    9.45810392   12.33092145
C     10.51181565    5.91428581   51.85734348
H      9.13782202    5.57937471   53.21643636
H     10.98970484    6.53568462   52.61761414
H     10.07871165    6.79601234   51.17730592
H     11.25638152    5.26344318   51.37248400
O      9.50950364    5.10090595   52.42696059
C     -2.35375657    8.53097827   33.74046128
H     -1.37559726    9.23770582   35.38166208
H     -1.38074017    8.33830307   33.29828577
H     -2.71829404    9.38382899   33.23017623
H     -3.13899140    7.81498690   33.66549518
O     -2.29876476    8.87550940   35.15876896
C      2.15734646    3.94692663   46.32374496
H      1.94333361    4.75605545   48.16782948
H      2.86489650    3.19541958   45.93938814
H      1.18837042    3.54990290   46.42191650
H      1.98727473    4.74458362   45.59062059
O      2.64798673    4.33479105   47.61770388
C     -2.68718760    9.84060957    0.02485579
H     -4.59061206    9.92776777    0.42102859
H     -2.73516960   10.47533735   -0.88014947
H     -2.10758162    9.05578175   -0.35173598
H     -2.19254853   10.41332611    0.76334637
O     -3.88303605    9.24411996    0.51112394
C      6.50325941    0.23019230   52.27612844
H      8.16301072    1.39726710   52.58245467
H      6.02884461    0.63087620   51.36923752
H      5.98616859    0.72653373   53.17098070
H      6.28091876   -0.88135344   52.37948155
O      7.90671730    0.48477019   52.37985236
C     -0.11237297   11.15668076   22.88380311
H     -0.77767488   10.02761582   21.48410967
H      0.19823737   11.12650310   23.94808311
H     -0.83676957   11.97460265   22.78119732
H      0.84935933   11.37886273   22.42580079
O     -0.56291284    9.91833162   22.40430271
C     -2.66914061    7.94350441   29.33690337
H     -3.69354951    8.84362897   30.76610530
H     -2.04640237    8.79050900   28.86907095
H     -3.45624504    7.67706204   28.61776244
H     -2.04716327    7.09212915   29.36772174
O     -3.09855159    8.11724290   30.70605873
C      8.28415538    2.85682463   24.24310313
H      7.54909546    2.29618978   26.03698623
H      9.17613428    2.73669145   23.79752115
H      7.40211947    2.62146713   23.63947745
H      8.18147589    3.97081883   24.51976450
O      8.38482158    2.11349564   25.49292596
C      8.83113898    4.17514763   29.34845775
H      8.34591396    2.31667732   30.01719337
H      9.70156050    4.79211290   29.25809113
H      8.35474011    4.33944779   28.32670639
H      8.18623674    4.60658019   30.05492702
O      9.16661118    2.77298629   29.65334646
C     11.29269169    5.70525021   11.98034944
H      9.61120438    5.19877350   12.93490319
H     11.97373622    5.13820320   12.64383948
H     11.67003167    5.64364200   10.93497952
H     11.25835957    6.80261201   12.20013985
O     10.01779236    5.06961765   11.98720959
C      2.08354448    3.90244733   41.50504253
H      0.54604814    4.20973455   40.33487670
H      1.31531996    4.30231605   42.25508365
H      2.60039770    3.00315076   41.84772214
H      2.80207416    4.72234188   41.18254321
O      1.24566241    3.43383310   40.42098567
C     -5.60116164   10.71905611   30.96599683
H     -5.99547353    8.87298071   30.33910492
H     -5.38279586   10.55757812   32.08948566
H     -6.64122284   11.08982184   30.77873075
H     -4.83803679   11.52091209   30.65655474
O     -5.32959409    9.64996441   30.11369719
C     10.80069697    3.92953498   34.58466316
H     11.08398866    3.82708348   32.60644561
H      9.80109090    3.85085313   34.93786820
H     11.40541485    3.01143114   34.56374663
H     11.36269142    4.67567273   35.17124836
O     10.66786432    4.40816933   33.23506118
C      1.19543423    8.97157571   35.01087178
H      0.35818582   10.69261708   35.71469020
H      1.16145256    8.13416840   35.69255281
H      2.13435514    9.55779607   35.12856656
H      1.18604238    8.52063976   34.02193168
O      0.13295005    9.88745498   35.13517398
C     10.70265072    1.84295010   53.27469615
H      9.61196162    3.33390984   52.58306633
H     10.71390799    0.72666137   53.20253709
H     11.00356401    2.07597177   54.27102203
H     11.52803475    2.30802172   52.64852072
O      9.45977714    2.34874454   52.79017738
C      3.58415522    5.01810448   33.46752431
H      3.03782483    6.78900840   34.21727720
H      3.90690912    4.77108600   34.44580096
H      4.54273560    5.25222691   32.96895095
H      3.04374341    4.32543697   32.93374422
O      2.69581267    6.07679186   33.61944015
C      2.63386296    7.33119593   38.86574894
H      0.78339306    6.71843475   39.42358748
H      2.90774372    6.36407117   39.35835932
H      3.31115691    8.08424401   39.23202927
H      2.65217541    7.32288827   37.78198081
O      1.26565880    7.59541045   39.42523856
C      0.43220463   10.54285773   40.73825813
H      1.40781217    9.12065610   39.79620723
H     -0.42297805   10.58495181   39.93677449
H      0.73358004   11.53923957   41.12433872
H      0.12118203    9.96421949   41.62385456
O      1.56964483   10.04491055   40.14923894
C      8.33275355    9.42517653   35.23170526
H      7.91756714    8.03264784   33.94958216
H      9.30379038    8.96971586   35.26333765
H      8.63255638   10.45478334   34.90257747
H      7.98266561    9.43839695   36.22458080
O      7.52895605    8.76695812   34.29007768
C      1.85358144   10.55704545   28.88788224
H      2.76511028   10.48237398   30.79967823
H      2.35502548   10.65162256   27.82312359
H      1.59550208    9.54088998   29.09627272
H      0.87090495   11.04216497   28.98690336
O      2.80640306   10.98444446   29.93679845
C      3.02731663    7.97804499   42.70502531
H      2.90848716    9.13573551   41.22896956
H      2.10080463    8.19268647   42.93644464
H      3.66279076    7.99228339   43.60124124
H      3.00643044    6.82198703   42.46765546
O      3.69916011    8.76846850   41.75332589
C     12.38710428    1.77145878   30.73456913
H     10.43077508    2.54383522   30.89821828
H     12.33377104    1.88100229   29.55386506
H     13.19943821    2.19739193   31.22019454
H     12.45359404    0.61155760   30.80088364
O     11.21331284    2.33334653   31.39170036
C     -4.22179089   11.18222487   38.33012163
H     -4.64645359   11.83770758   40.00765104
H     -5.14950758   10.72975140   38.15964535
H     -4.20286900   12.14780645   37.78844098
H     -3.58897311   10.50403128   37.84559870
O     -3.87880810   11.21337470   39.68241483
C     12.03077269    1.94020152   18.51803369
H     13.62791501    2.22297211   17.31969866
H     11.27578087    1.09932152   18.56109214
H     12.59094642    2.05368590   19.49761533
H     11.58885103    2.82895482   18.17605867
O     12.97021730    1.44989689   17.51120181
C      0.47567969   11.87719225    1.65795769
H      1.54431811   11.46158100    0.21260550
H     -0.33526993   11.33258742    2.13166647
H     -0.03886600   12.55018464    1.03543058
H      1.02017298   12.32276597    2.46270676
O      1.20567442   10.90434866    0.93429651
C     -2.03190911   11.62195583   27.25291728
H     -0.05983064   11.60645163   27.33612676
H     -2.46453269   12.44046691   26.60935272
H     -1.98533329   12.10890570   28.29149269
H     -2.74969976   10.72859083   27.30609009
O     -0.71531890   11.19703482   26.69914427
C     -1.49225036    8.42914633   25.32252719
H     -0.02965465    7.70698192   26.60034389
H     -1.63686161    9.49109542   25.76906187
H     -0.79420840    8.40576728   24.44322897
H     -2.44599767    7.99052864   25.03933003
O     -1.05024898    7.52585181   26.48795355
C      3.32169603    8.58228744   22.45642418
H      2.14373561    7.50991689   21.25942991
H      2.63013841    9.38950598   22.49152879
H      3.21719179    7.94313006   23.38078296
H      4.42512010    8.85301388   22.43636219
O      3.05738801    7.81101675   21.15378041
C      6.98255919   10.59843008   20.38177076
H      6.63815490   11.62748371   22.13671763
H      7.37568183   11.51819168   19.89140525
H      6.01964565   10.55019608   19.75015982
H      7.64981136    9.84513981   20.10061569
O      7.02962877   10.76456036   21.82526281
C      4.25558318   10.64940028   32.84214520
H      3.70599986    8.74187019   33.02872295
H      3.82178161   11.07672177   33.74638105
H      4.20643947   11.48340969   32.10144240
H      5.29747850   10.39727079   32.90454558
O      3.65597894    9.47081688   32.35535919
C     11.75163644    0.69031289   23.62631951
H     13.15454714    1.35265833   22.26895890
H     11.16160393    1.55819002   23.78129428
H     12.32946874    0.39678210   24.43625948
H     11.02782040   -0.19528156   23.58104654
O     12.34772809    0.80237790   22.33279134
C     -1.49182853    7.94122381   14.90963041
H     -0.38445756    9.56331073   14.55672148
H     -2.40298882    7.71013140   15.38384500
H     -1.54228647    7.21023773   13.99712143
H     -0.80410290    7.44051506   15.70410221
O     -1.42813421    9.35571754   14.69902112
C      5.32990925    1.35239065   41.95900243
H      5.85077151    3.20004132   41.70840793
H      5.00564177    0.47832420   41.37226955
H      6.24126736    1.08006021   42.57649328
H      4.60378224    1.77591502   42.71075442
O      5.75053012    2.48581035   41.05818929
C     -5.62859550   12.21705288   27.40701538
H     -5.18585262   10.39377849   28.17051845
H     -5.76199013   12.55852690   26.34900030
H     -6.53679113   12.45387074   27.84844692
H     -4.77166809   12.67704306   27.93215956
O     -5.50196305   10.75554574   27.25586139
C      1.31805271    4.55769935   13.02936001
H      1.57613089    3.95819974   11.27151660
H      2.12292116    5.37411320   12.85205183
H      0.31712707    5.01033841   13.02889211
H      1.47737182    4.08817165   13.90072430
O      1.48335602    3.47660509   12.11532836
C      5.37498644    6.65571201   11.07920714
H      3.86608922    7.79692847   11.75614669
H      5.25499960    5.73635386   10.43598951
H      6.16727786    6.43839191   11.82286129
H      5.69994703    7.51072010   10.52181784
O      4.06367040    6.86434503   11.70260407
C      3.72703719    3.23873142   30.19164050
H      2.55342333    4.70252991   29.90660265
H      4.57678617    2.58336535   29.75598821
H      3.99618778    3.35996015   31.18620414
H      2.77279424    2.58867344   30.15457376
O      3.51701738    4.44585574   29.60064589
C     11.82476826    3.14086231   38.34376884
H     10.46727921    4.57988121   38.64453510
H     11.29307194    2.09612138   38.41058164
H     12.91510015    2.91211482   38.75558020
H     12.06486732    3.49921915   37.30503927
O     11.28198268    4.18285710   39.13896645
C      1.33645936    2.43984953   21.16581481
H      1.06716426    2.09884950   23.16714887
H      0.77314922    2.05126481   20.34035039
H      1.53720649    3.42956974   20.92039609
H      2.24540783    1.86414865   21.34018313
O      0.51722163    2.52526582   22.42829557
C      0.59448842    1.51526774   34.71834442
H      1.27851158    3.33060014   35.20523277
H      0.98705804    0.56031919   35.30912281
H      0.50545765    1.25428372   33.62095500
H     -0.37749199    1.86888226   35.19060531
O      1.63271741    2.49583940   34.70725703
C      5.57755759    7.22538807   30.53154187
H      7.42213438    7.04393070   31.17650294
H      5.65922912    6.27919692   29.92836413
H      4.95752249    7.15911090   31.35363331
H      5.29687599    8.08952052   29.86665233
O      6.92932802    7.75887344   30.71115154
C     -0.85814675    5.95983564   41.54229761
H     -1.30092072    5.21260711   39.73857603
H     -1.31490740    6.89429184   41.51412614
H      0.07230236    5.89561555   42.15959644
H     -1.56722658    5.29351453   42.01046700
O     -0.46187812    5.57967742   40.11450132
C      3.78905795    3.75843088   23.00683921
H      4.87479710    2.32749132   22.18180152
H      2.93753532    3.72044679   23.73371687
H      4.52860246    4.61933254   23.14250763
H      3.31495120    3.93814929   22.04572006
O      4.40491905    2.42885344   22.99118751
C      1.46609084    6.09351722    9.35440275
H      2.96453483    5.49878521   10.47016946
H      0.77761561    5.76484086    8.63029992
H      2.01172513    6.91482007    8.83864401
H      0.88492992    6.65129518   10.11790390
O      2.34657245    5.04569995    9.83777892
C      0.32314025   11.49758164   11.97020233
H      0.68993916   13.21307752   13.04444265
H     -0.50358943   11.98401170   11.46529936
H      1.12620488   11.34995929   11.25140187
H     -0.09584198   10.55460443   12.37435289
O      0.83798852   12.18320626   13.20408696
C      7.45790113    4.50311035   32.56089755
H      9.16527940    5.52835665   32.47599435
H      6.43643859    4.60542277   32.21113791
H      7.43071680    3.95770587   33.51052400
H      7.82129394    3.90056165   31.74209690
O      8.18598563    5.74045218   32.41693628
C      0.28044198    0.60006651   41.60599444
H      1.01662282    1.67940946   40.23286928
H     -0.68845622    1.02014302   41.71946189
H      0.91744659    1.20575263   42.24836287
H      0.37617761   -0.46243130   42.00424183
O      0.75946960    0.69587675   40.28892435
C      2.64831594    7.35399519   27.79939866
H      2.40611592    8.53792220   26.21048158
H      3.17242850    6.38333917   27.54532346
H      1.83361243    7.09971643   28.51583754
H      3.26528299    8.06824638   28.23970128
O      1.93659350    7.87885626   26.70940252
C      5.02971289    7.21951929   35.96038591
H      4.15638983    9.01999363   35.72838240
H      5.48566754    6.51279902   35.20407563
H      4.54473893    6.55622199   36.68650227
H      5.83367197    7.89097047   36.26421933
O      4.14527748    8.12673193   35.20154153
C      0.80996343    5.59831634   36.56176150
H      1.64859784    5.39268901   34.69247211
H      1.69310713    5.59323951   37.26469202
H     -0.08000216    5.10630108   37.04521636
H      0.62930907    6.66145206   36.37700220
O      1.09938021    4.89825335   35.30969511
C     -0.14778696    5.17434825   31.12454730
H      0.53699861    4.58204177   29.29094343
H     -1.15800120    4.49877615   30.85017114
H     -0.44805360    6.25082491   31.14125248
H      0.31238159    4.83639487   32.09185788
O      0.85785090    5.08045551   30.02500340
C      6.68562251    8.39815752   39.15337465
H      5.36450781    8.17186378   40.74554899
H      6.07670921    8.91595178   38.41868919
H      7.53821130    9.02388404   39.63892821
H      7.28783032    7.61031708   38.63186063
O      5.95779446    7.66486880   40.09969187
C      6.18636673    1.51033696   19.54050353
H      4.99391188    3.04086755   20.02464651
H      7.23253269    1.81383893   19.30665226
H      5.74336503    1.29526951   18.61856521
H      6.36603960    0.56052055   20.06681699
O      5.53010763    2.31816252   20.45603151
C     -0.69838739    7.54871028   19.58843207
H     -2.22965975    7.56662913   18.41386166
H     -1.31641225    7.41665314   20.41425996