  823
# Step    60000,  Time   60000.0000 fs
Al     5.67843956   10.07107575    8.55663655
C      5.19537148    6.92288173    7.53144392
H      6.82158009   11.43942813   10.77554685
H      3.91296310    8.29871959    8.26907598
H      6.18175967    6.66600244    7.73056569
H      4.51454809    6.29861838    8.10602674
H      4.94769871    7.15660666    6.48121000
H     -2.68498714    9.43097536   13.03199158
H      8.95077504    2.52507633   13.39169538
H     -3.07702561   11.17424045   40.78616174
H     11.08308824    2.28797061   40.75351021
O      6.94498844    9.49142916    9.74098903
O      4.26481192   10.61980959    9.42944200
O      6.56688293   11.77681884    8.72646382
O      5.65942542   10.17170987    6.81638172
O      4.90209121    8.15421026    8.32059891
O     -5.00507200    9.61046520    7.74023151
O     10.69236639    0.90317075    8.28299252
O      8.16202679    7.28697804    8.92934866
O      1.89239737   11.69801746    9.29299742
O     -4.24429236    9.33937638   10.24343423
O     10.35831869    0.66748548   10.90927823
O      0.37248305    1.60013226    7.10174726
O      1.49917794    1.07599585    9.54177940
O     -0.67521023    2.31213462    9.44067171
O      6.97164902   11.85505573    5.18502071
O      4.45216878   10.90601811    4.84557401
O      6.50071156    9.29035663    4.36982254
O     -3.29651827   11.79331831    7.88609254
O     11.26586910    3.29268630    7.67628393
O     -2.35962818    9.30993620    7.86452771
O      8.66743473    2.76455814    7.73703515
O     -0.04210339   10.03486430    8.38403712
O      8.45628234    4.87927341    9.30664061
O     -3.37297892   10.48216895    5.74256119
O     10.19565402    1.67313395    5.77683201
O      6.18344006    0.46725239    8.79851281
O     -3.15455928    6.43140388    8.51180522
O      1.19701807   11.71289963    6.69709326
O      8.52310412    5.73466490    6.82701593
O     -3.29380620   11.81871170   10.58243421
O     10.96555809    3.22074071   10.55584916
O     -1.49862135    9.78015122   10.46074160
O      8.45516026    2.47015878   10.44341688
O     -0.41461797    2.33408232    4.71894475
O      2.06915190    1.43573363    5.13250105
O      4.00092445    1.88468102    9.09847791
O     -1.20105858    4.87448287    9.24047750
O     10.76910570    0.84660799    3.25175985
O     -4.87444935    9.94566639    3.41574926
O      2.00919464   11.55782421    4.21627674
O      8.73164408    7.75397604    5.06361850
O     -0.85372643    7.57192002    9.09715461
O      6.36708250    3.21712774    9.07099888
O      3.62813883   10.49987550    2.31145006
O      7.57018386    7.65634048    2.68136610
O     11.08663777    3.47091003    3.94041285
O     -3.21851535   11.92856699    3.64525373
O      5.21561512    2.10817258    6.85815483
O     -0.87851889    6.28839607    6.93891406
O     -2.24684733    9.49168179    3.43698061
O      8.80391632    2.55553633    3.82200578
O      6.39766645    0.72050040    4.76751726
O     -2.90783582    6.23884874    5.41351613
O     -0.17598958   10.16537833    4.98890988
O      8.50724421    5.22499339    4.21619428
O      4.36481107    2.18934244    4.25844306
O     -0.65764060    5.00303208    4.61232097
O     -0.62914635    3.84836482    2.38388706
O      2.62394018    2.07421231    2.46442065
O      6.50552144    3.48644436    5.00705258
O     -0.72025895    7.55602577    4.55738149
O      5.16267758    8.44318200    2.07509235
O      0.19920339    8.97951673    2.56729915
O      7.06635765    3.74992709    2.41036739
O      2.51700578    8.09409443    2.02476800
O      5.92717932    5.93827669    1.39016793
O      3.82889295    9.31460575    0.02500000
O      6.90708291    7.94820201    0.13668711
O      1.92042252    4.57257845    1.72376923
O      0.18640847    6.47008022    1.79993223
O      4.47164954    3.82079096    1.77875919
O     -0.06657535    4.66681826   53.89576776
O      2.97110705    2.73939425   53.91300000
O      0.73709918    8.56961724    0.06812599
O      6.33805746    3.76986196   53.84826908
O      5.07109190    8.01176218   52.15823651
O      2.51021387    8.78107694   51.89019734
O      6.69935701    5.92869417   52.35922763
O      7.64523365    8.31842669   51.75594664
O      4.46819925   10.54396503   51.64413550
O      1.38403482    6.47213271   52.47467214
O      4.31781824    4.48481051   52.40171376
O      1.66486879    3.89676300   51.87200669
O     -0.09186656    8.50879320   51.58259824
O      6.91210131    3.33198064   51.36636093
O     -0.47744355    5.17245882   51.09783067
O      3.63277668    2.05237999   51.50210039
O      7.49851812   10.19562067   49.89956709
O      5.32121642   11.75384778   49.27553360
O      8.30236361    7.74028443   49.18924355
O      3.06406590   10.55158165   49.39371626
O      0.74964855    9.10267189   49.06596133
O      7.95635661    5.05028933   49.44258634
O     -1.48303935    7.70064647   49.42708214
O      7.51092050    2.36846957   49.09848178
O      0.69068745    3.18770122   49.61983496
O      2.97459480    1.92890907   48.85350813
O     -1.13333967    4.93573754   48.62888830
O      5.44674147    1.12906244   49.87779126
O     -3.86864349    9.27498562   50.54243019
O     10.11879379    0.73588889   50.77497380
O     -1.42099831   10.24408504   50.14291437
O      9.36228188    3.33904945   50.65734715
O     11.98320651    2.91028019   50.45097469
O     -3.45851623   11.92824837   50.38777470
O      0.80655529    0.49253311   49.09763713
O     -3.38585349    6.18551885   48.71564732
O      0.89023844   11.81957598   48.96215508
O      6.88118465   10.90762790   47.32825024
O      8.08992673    6.12596093   47.17983168
O      1.95928198   10.22052224   46.96824015
O      0.89012878    2.32923889   47.25403284
O     -1.52845946    7.19030227   47.04677090
O      5.81319816    1.02952820   47.29742005
O     -3.16244454   10.47701381   48.24932292
O     10.26425303    2.28205753   48.53518428
O      0.37219688    0.37927899   45.48900149
O     10.21660123    6.31970777   45.50024247
O      0.37235564   12.02858987   45.26380711
O      7.12544978   10.01851325   44.78898309
O      5.02990489   11.07817155   45.61103183
O      7.86887453    7.61398648   44.85730085
O      2.63351185   10.99774024   44.64542293
O      8.02824321    5.03957812   44.83005932
O      0.42339411    9.56788855   44.82643862
O      2.40208062    2.00932607   44.97501348
O      0.04130605    2.95814535   44.73568222
O     -1.57069346    7.75250898   44.46779150
O      6.96090153    2.58256111   45.32296503
O     -1.16698718    5.31800772   45.11287705
O      4.87523027    1.19074154   44.80735741
O     -4.50311695    9.28379827   46.26758333
O      9.98437435    0.88709526   46.17402771
O     -1.88460673    9.99517845   46.10137189
O      9.09114925    3.26816080   46.49149693
O     -3.64180776   11.89863264   46.16466436
O     11.70331365    2.99954219   46.37980710
O     -4.35407545    9.43903365   43.51952328
O     10.99766665    0.69604774   43.72924701
O     -1.67651849   10.12102956   43.34466310
O      9.08393266    2.55866116   43.93542933
O     -3.58626025   11.97885428   43.40439197
O     11.52450368    3.37509783   43.69240806
O     -3.16287071   10.17702130   12.49311193
O      9.77389637    2.61584082   12.73575181
O     -3.51961241   10.48108402   41.37405771
O     10.22173742    2.11482015   41.57648891
Si     8.27708559    8.91630019    9.20216097
Si     3.50859260   11.93197500    9.51350212
Si     0.14312168    1.06248175    8.65577780
Si     5.96553738   10.58200946    5.32837883
Si    -3.57753769   10.26047617    7.29846119
Si    10.16440992    2.11214621    7.39213540
Si     0.66700188   11.48075227    8.25649778
Si     9.05334094    6.07157679    8.31842534
Si    -3.02388191   10.18454271   10.89078711
Si     9.89527053    2.22755242   11.20938125
Si     0.46209186    1.24372496    5.52612540
Si     3.06881607    0.53927862    9.20584223
Si    11.88887834    3.38158081    9.20587338
Si    -1.20798313    9.13764145    9.01649098
Si     7.99621912    3.33933354    9.07828178
Si     3.55031302   11.45386593    3.64323133
Si     7.87000526    8.64684325    3.93420200
Si     5.51891237    1.95749897    8.43518402
Si    -1.62053507    6.26060468    8.42335309
Si    -3.45981937   10.38904622    4.07580992
Si    10.22558023    2.10251657    4.23092743
Si     0.65746331   11.57885841    5.15384428
Si     9.14801049    6.23683613    5.36342349
Si    -1.05327926    3.63014773    3.90102275
Si     3.07517200    1.32622728    3.90003861
Si     5.66678244    2.08521864    5.30633688
Si    -1.31455204    6.31217809    5.36904697
Si    -0.78682226    9.09158102    3.88013278
Si     7.70729840    3.76518276    3.92376089
Si     3.79106529    9.05905477    1.65262882
Si     6.38774490    7.52215681    1.60059807
Si     0.25711265    4.85991181    1.52463766
Si     2.95275921    3.30680056    1.45776900
Si     0.92521727    7.89983198    1.55987813
Si     5.93655620    4.37330087    1.39752663
Si     6.52334088    7.51322501   52.62325223
Si     3.90371644    9.20921649   52.43090166
Si     1.15335791    8.06754018   52.55900275
Si     5.99085004    4.44680490   52.43833473
Si     0.50340880    5.01185714   52.43507897
Si     3.10586135    3.35040722   52.36634099
Si     8.30389617    8.83183219   50.39874676
Si     4.07278688   11.47773189   50.34056857
Si    -0.61622115    8.86809859   50.01184253
Si     7.83352149    3.56105727   50.12387581
Si    -0.66295710    4.04922264   49.92387857
Si     3.82542682    1.28403480   50.12249207
Si     6.85824378   11.36623586   48.87494929
Si     8.70935999    6.25542354   48.68589640
Si     1.63567605   10.39102804   48.57251237
Si     1.28565099    1.92699887   48.74190723
Si    -1.83598251    6.43942868   48.45243088
Si     6.59837888    1.01236103   48.79580630
Si    -2.97793601   10.47735279   49.87667138
Si    10.50130423    2.30573720   50.16980796
Si     6.63733927   11.16175678   45.80252607
Si     8.58291921    6.28899692   45.65446982
Si     1.27708717   10.71244478   45.53904950
Si     0.93061146    1.90086464   45.69992808
Si    -1.99798870    6.59777036   45.62682868
Si     6.18433673    1.23883576   45.77404641
Si    -3.32136781   10.43209859   46.66122633
Si    10.29833974    2.26087866   46.91785588
Si     8.46894301    9.11400176   44.81868947
Si     3.85065294   12.00507963   45.02281251
Si    -1.20747544    9.33860717   44.72190434
Si     8.31806356    3.41377051   45.08884858
Si     3.37422030    0.69244308   44.83288361
Si    -1.36328110    3.67884015   44.98388360
Si    -3.19188690   10.46817778   42.89538956
Si    10.48729046    2.19187975   43.11127099
C      2.75978372    5.05583531   47.09332943
H      4.37102674    5.37162856   45.81864473
H      2.48994802    4.47596547   47.97558471
H      2.01617810    5.10019283   46.35764042
H      2.90033627    6.12839019   47.40075279
O      4.02376373    4.67026204   46.52138072
C      4.73150892    2.51082078   12.45069141
H      5.47080433    4.34658405   12.63593829
H      5.51629274    1.83728543   12.00397949
H      4.26074384    3.00071977   11.58093009
H      4.02962355    1.89607636   13.05653759
O      5.46012415    3.53030160   13.20572476
C      4.48228075    7.86405789   45.17270025
H      5.11993062    6.70740614   43.77894519
H      3.45222081    8.04702535   45.56093906
H      5.17504939    8.33938969   46.04903777
H      4.87561830    8.63393483   44.37912682
O      4.73020315    6.56864941   44.71098168
C     13.57983884    0.98401893   52.41938723
H     11.72189798    1.38236131   53.09935063
H     13.39175883    0.02259450   51.94905426
H     14.48508148    1.14254412   52.94904602
H     13.41681631    1.76554787   51.65182212
O     12.55125578    1.02979830   53.45749410
C     -3.20759864    8.39380475   53.59806625
H     -2.55041428    7.54916600   51.83739020
H     -3.93080746    9.17259889   53.32704463
H     -3.63214556    8.08065288   54.52767337
H     -2.24888573    8.80888027   53.81901338
O     -3.10727323    7.29524240   52.67978995
C      7.43069937    3.32672589   37.36826395
H      6.85849627    3.54590531   39.26879693
H      6.98576706    3.76280806   36.43406721
H      8.48728934    3.84464067   37.42749166
H      7.40409017    2.19436177   37.30469555
O      6.59945599    3.88841596   38.44089648
C      2.72376946    8.30807595   36.03866284
H      1.27177560    8.08002799   37.54998515
H      3.41964549    8.66207047   36.79469955
H      2.51074209    9.01741071   35.15909487
H      3.22164195    7.42137794   35.48927641
O      1.42103445    8.04873692   36.51335077
C      5.13074031    9.28023291   13.21516828
H      7.18469577    8.91248632   13.62781110
H      4.76205603    9.64822396   14.26615602
H      5.06347260    8.24433144   13.04693867
H      4.59125219    9.88854152   12.47801935
O      6.58131765    9.64558375   13.31620935
C      6.85115589   10.99059308   34.44848030
H      7.40305078   12.84369007   35.14303314
H      7.47882099   10.18374400   34.85221184
H      6.70250755   10.77209819   33.43578270
H      5.92786782   11.26761014   35.01288087
O      7.62254007   12.26417959   34.39960196
C      9.25586543    5.66724954   34.23696730
H      9.47281866    3.79892901   33.45323119
H     10.00877099    6.05469810   35.05665151
H      8.30620108    5.95728746   34.61599533
H      9.57088681    6.01562487   33.25112924
O      9.48056939    4.25185236   34.31305321
C      1.74650544    4.10820087    7.77796181
H      3.09971346    4.93886306    6.65214824
H      0.77584881    4.13915168    7.12941843
H      1.33412888    4.36307680    8.77640043
H      2.30304027    3.11719343    7.78755856
O      2.61598234    5.21975672    7.50173158
C      0.23626337    0.13316120   19.13588121
H     -0.58349523    1.20168052   20.65583019
H      0.10561486   -0.98802443   19.26014730
H      1.17363476    0.32699838   18.69821993
H     -0.43912852    0.53736438   18.32092941
O      0.27159761    0.79654756   20.38852788
C      1.26292682    9.77098832   12.27925724
H      0.82257164    9.03995222   13.98831666
H      1.46594589   10.73994125   12.59182713
H      0.12416457    9.80847559   12.13517684
H      1.74357444    9.53313523   11.26837595
O      1.57005902    8.92049567   13.36516573
C     -3.45496269    9.65252229   33.01639043
H     -2.69918467    9.73838031   34.89699237
H     -2.75005344   10.32340116   32.59009400
H     -4.48225810    9.92511141   32.73726097
H     -3.04865101    8.67639451   32.83572049
O     -3.56519888    9.83296877   34.48932325
C      4.30816297    5.19455908   15.88243503
H      4.35418042    4.00220122   14.39202597
H      5.16610415    5.92564117   15.61918793
H      4.81851347    4.44726234   16.51705394
H      3.55133221    5.68593398   16.39434012
O      3.72020914    4.63413385   14.69743878
C     -0.57142905    1.96463131   31.58944170
H      0.41147851    0.95638304   33.01389580
H     -1.39464461    1.26486465   31.63399075
H     -0.84057287    2.84295486   32.16061454
H     -0.29086806    2.27620005   30.53135688
O      0.63257419    1.51788110   32.19771851
C      1.30164558    7.79293668   22.18597554
H      0.42186886    9.68694819   22.46152550
H      2.15298627    7.84766796   21.45576523
H      1.57775143    7.02404280   23.01643215
H      0.37545861    7.45885496   21.79779675
O      1.15311349    9.10400443   22.86609065
C      0.77750480    5.33918019   15.92367333
H      2.04724889    5.76544813   14.37326875
H      1.15871132    5.95019603   16.82464817
H     -0.20813592    5.21333731   15.85174050
H      1.28973864    4.35760827   15.83835127
O      1.25263328    6.06366467   14.76561217
C      9.81789178    5.50900797    1.16585599
H     11.27691808    6.03729244   -0.12717811
H      9.58010322    6.60397330    1.57707240
H      9.89127632    4.91750433    2.02771823
H      8.93649654    5.09781117    0.60668554
O     11.20307578    5.39979409    0.64042226
C     -1.52656538    7.65923285   37.04393496
H     -1.18699994    8.41684690   35.14412766
H     -2.26381067    6.94948996   36.64677480
H     -1.87393148    8.00855312   37.92605957
H     -0.52411656    7.35086784   37.14666138
O     -1.43216032    8.73846367   36.08968358
C      4.88180370    5.74337572   49.48945518
H      5.04530751    4.18126247   48.33553581
H      5.26235114    6.04673824   50.44426160
H      3.81587080    6.07866977   49.57330840
H      5.31875721    6.26148896   48.66670143
O      5.03586638    4.27727045   49.30505261
C     -2.31347981   11.58060854    0.70558840
H     -1.93308731   12.66952219   -1.02624472
H     -3.32404852   11.85210929    1.01877851
H     -1.46985915   11.96853819    1.33341298
H     -2.46707458   10.48872114    0.77057949
O     -1.94936521   11.78013536   -0.65322254
C      9.59349873    2.10318080   54.13905830
H     10.88783819    3.66439085   53.94772017
H      9.00096585    1.74786748   53.44020316
H      8.89103967    2.68672380   54.81433539
H     10.03863729    1.39546821   54.73624612
O     10.54274927    2.91730154   53.45537801
C     -3.29525635    9.25419894   23.42131541
H     -3.86510071   10.83447164   24.58597936
H     -2.66708668    9.06829211   22.53077573
H     -4.32476672    8.73990393   23.42518881
H     -2.70860368    8.85598616   24.26660078
O     -3.51665678   10.71748127   23.61678813
C     10.02482157    3.15702803   30.52350232
H      8.90402803    2.09752871   31.71586741
H     11.12757345    3.49691880   30.79801647
H      9.89450626    2.25691539   29.88865901
H      9.57879426    3.90706628   29.87601071
O      9.44324899    2.98493806   31.81049259
C      4.24341872   10.37792274   21.56954931
H      2.76715141    9.87892904   22.86336246
H      3.53755761   10.02345194   20.68475220
H      5.26178245   10.06880205   21.44514508
H      4.14219713   11.52008062   21.64149656
O      3.74392060    9.74181376   22.75077688
C      0.73464881   11.27946706   36.71895195
H     -0.57459811   10.03536096   37.14767934
H      1.26405537   10.36981323   36.36194295
H      0.24628758   11.72679097   35.86190272
H      1.31565278   12.09746390   37.07476647
O     -0.27439537   10.80301942   37.66173978
C      3.68596166   11.00999267   32.09397138
H      2.26246475   11.85294615   30.98740018
H      3.66784676    9.93407929   31.75864322
H      4.73599980   11.37711098   32.19865253
H      3.17799562   11.13458735   33.02785355
O      3.25856542   11.92184465   31.02442404
C      2.88135617    9.95907053   41.63661596
H      2.73861700    8.60179097   40.05991106
H      1.84847204   10.28324958   41.53752346
H      3.19576015    9.31346573   42.57051604
H      3.36262529   10.92164820   41.74511530
O      3.42076777    9.27928459   40.45858864
C     10.74505556    3.92418031   25.97529683
H     11.52247648    5.62424676   26.75432551
H      9.76694274    3.66493424   25.65862891
H     10.93739520    3.30784451   26.90343887
H     11.51312993    3.79244086   25.17869115
O     10.59837573    5.25621653   26.44500894
C      0.19954298   10.71311654   32.70984114
H      0.09742261   12.31637349   31.47353136
H     -0.70247017   11.15771839   33.12371906
H      0.87767646   10.64295427   33.54105790
H      0.04075384    9.68662361   32.26053530
O      0.76882264   11.67611440   31.67471929
C      7.82211345    7.06074027   37.48937901
H      8.53220295    8.50531635   36.22186324
H      8.02229990    5.95698659   37.47325348
H      6.76996496    7.15265590   37.44934235
H      8.25194795    7.45920340   38.47043483
O      8.62897191    7.52145342   36.35674224
C      0.29514415   -0.60062788    1.67568649
H     -0.62910127    1.23756953    1.21931890
H      0.91798857   -0.80522416    0.78449384
H     -0.61429383   -1.24329442    1.57967601
H      0.92646341   -0.80250197    2.51545205
O     -0.05943624    0.70144416    1.93569179
C     -2.25612314   10.35754845   19.75483757
H     -1.36073199    8.52109623   19.56087434
H     -3.22079984    9.89353612   19.87092762
H     -2.37933260   11.10383424   18.92756844
H     -1.95512646   10.90140578   20.65916697
O     -1.24030638    9.42197060   19.34898787
C      4.79022044    9.05799596   26.27364378
H      4.04919288   10.20106996   27.54332383
H      4.38484212    8.31362138   25.56670491
H      5.48776029    8.57370909   27.00727494
H      5.29428276    9.84325488   25.70435335
O      3.58885376    9.66086716   26.84714268
C     11.74122246    3.57694421   38.71274856
H     12.69098278    3.04640632   40.33753946
H     11.97358124    2.89090521   37.82564908
H     12.37433838    4.43193115   38.65403408
H     10.73909033    3.96635944   38.55605242
O     11.78353134    3.11689007   40.03894596
C      3.74039240    0.85169203   35.23775524
H      2.54606322   -0.59230936   35.39521316
H      4.53414299    1.56839532   35.67813330
H      4.34087853    0.21030776   34.64758675
H      3.11322217    1.40384713   34.46992305
O      2.84137843    0.11569638   36.04363235
C      0.87084862    4.05522403   23.22456312
H      1.97254645    3.26651030   24.58168103
H      1.89533679    4.36976673   22.77063032
H      0.47997630    4.81335655   23.96621957
H      0.09021705    3.92386203   22.41471548
O      1.21838387    2.88677344   24.04228285
C      4.60427340    0.98302376   39.10163534
H      5.28125348   -0.83818176   39.08766537
H      4.43413452    1.73693864   39.84882783
H      5.48633533    1.22098647   38.50773922
H      3.80102996    1.00369413   38.28082961
O      4.75486571   -0.29642373   39.75876579
C     12.59022027    0.37908154   28.06050933
H     11.24451974   -0.23953282   29.33204803
H     13.39202590   -0.03045180   28.64448064
H     12.83243600    0.01757645   26.99842549
H     12.65857525    1.43067510   28.11727054
O     11.35462121   -0.23893742   28.34770286
C     -1.09040490    4.83467688   34.81522687
H     -2.71085711    3.70901739   35.19320323
H     -0.71831422    4.44596752   33.87265328
H     -0.27457976    5.11163894   35.49127461
H     -1.77925282    5.68553391   34.55010234
O     -1.87598832    3.81964651   35.64690233
C     -1.42568065    6.53018339   12.32724399
H     -0.28359561    6.06775306   13.95102259
H     -1.11399607    5.57199449   11.89482548
H     -2.46609387    6.75396204   12.06937145
H     -0.77368876    7.34439353   11.95704063
O     -1.20919153    6.52158753   13.78732817
C      0.88783919   11.77560664   54.15236174
H      0.16334662   11.35894006   52.47448047
H      0.23429809   11.06257509   54.52711021
H      1.78334226   11.49759819   54.57670535
H      0.55680322   12.74783559   54.41234871
O      0.99836031   11.54896247   52.68082092
C     -0.79053113    4.92145072   28.46939559
H     -0.50686532    6.69220407   27.53526839
H     -1.20169482    3.90517431   28.32887094
H     -1.57126923    5.47873811   29.00322142
H      0.22002377    4.80756304   28.99756040
O     -0.68378413    5.67192027   27.30403195
C      6.04312043    7.25145071   33.54061639
H      4.20837254    6.40599242   33.63776835
H      6.65646950    6.87331795   32.68719621
H      6.26687473    6.58189781   34.32223434
H      6.23259632    8.25989448   33.86336379
O      4.58009076    7.08542385   33.07204140
C      2.97950863    8.28546005   17.12151695
H      3.14896553   10.13002440   17.62740597
H      3.31623884    7.55193349   17.83073654
H      2.96201938    8.00241258   16.04994989
H      1.86791502    8.52366468   17.43783044
O      3.75041392    9.50475632   17.29347325
C      8.21677450    7.74080176   25.76925188
H      8.35730645    9.61884637   26.30854442
H      9.14598836    7.20650502   25.94669672
H      8.16320771    8.11087738   24.71202133
H      7.47170203    6.98584026   26.01811143
O      7.97360320    8.76679591   26.67732046
C      0.27809617    7.15209240   33.13873563
H     -1.56150349    7.18973269   32.18217174
H      0.46922136    6.15815087   33.55901146
H      0.80830762    8.00478026   33.55229264
H      0.76779289    7.12733435   32.09573288
O     -1.09236946    7.49560085   33.01052486
C     -0.02665662    4.04738177   19.47140592
H     -1.87167756    3.46729605   20.03385732
H      0.25982070    3.55812783   20.36772238
H      0.55309533    4.98803848   19.32611734
H      0.11911557    3.36417019   18.50408996
O     -1.50183264    4.34890109   19.66091589
C     -3.84076274    7.02389077   19.55623178
H     -2.15987330    5.88822530   20.07180065
H     -4.47493434    7.59803828   20.21903378
H     -4.34104509    6.04387127   19.35601405
H     -3.75453318    7.59782688   18.62255316
O     -2.64862371    6.72418281   20.35628096
C      6.71714977    9.50312430   41.41287311
H      5.14447282    8.92581213   40.50496913
H      6.15107473   10.28424923   41.86186301
H      7.15396160    8.98455605   42.30851099
H      7.60959921   10.02155745   41.02721173
O      6.12442448    8.67406865   40.40683765
C      2.80007684    0.85856933   15.44513828
H      2.76531254    2.86485503   15.01595646
H      2.11037000    0.08403506   15.23169129
H      2.95606414    0.79209772   16.51591382
H      3.79003047    0.53931408   14.92224524
O      2.22529559    2.03967491   14.92616866
C      5.76525429    6.19110768   10.60530934
H      4.53438070    6.28008373   12.18616023
H      5.64740528    7.31883247   10.51188660
H      6.80229850    5.84011665   10.54282454
H      5.14113301    5.75294974    9.77455119
O      5.41409185    5.83509848   11.94686088
C      3.96543294    5.00586052   19.56746518
H      3.32578524    6.41039545   20.64259561
H      4.70285588    4.71008924   20.40628793
H      4.48404801    4.76353946   18.57299938
H      3.14020645    4.20365455   19.69738856
O      3.32073202    6.20227859   19.67343078
C      4.02420565    3.51361997   42.22671488
H      2.68504783    4.33473704   43.35325975
H      4.71975807    4.00208686   42.97355781
H      4.25690298    3.60490866   41.09877258
H      4.02056166    2.44740968   42.48152470
O      2.67056362    4.07743291   42.37766051
C     11.07883818    4.17664517   15.62554478
H     11.50506984    3.20697887   14.00803328
H     11.59432956    4.44182902   16.56111473
H     10.81829133    5.07917575   15.02724465
H     10.09810096    3.74523145   15.77927191
O     11.93441408    3.14712746   14.87625462
C     10.15319460    0.85998808   35.43735968
H      9.84572394   -0.87939249   36.11412904
H     10.51207202    1.24268124   34.43447957
H     10.93230924    0.93182435   36.22295307
H      9.29629029    1.50073494   35.60057084
O      9.71466435   -0.46121172   35.23938658
C      0.80335863    1.45412261   41.42566754
H      1.02749869    3.29528593   41.18635966
H      1.55862180    0.89898967   40.85119795
H      1.27933999    1.64491754   42.44610537
H     -0.06901960    0.73562920   41.46218337
O      0.52493004    2.64122197   40.74175871
C      2.56214659    3.92993214   30.74865452
H      2.01329428    2.66324249   32.16309364
H      1.81636923    4.69412154   30.80839041
H      3.49924259    4.36903865   30.61177272
H      2.43469126    3.10834783   30.04433080
O      2.72458279    3.21277870   31.96165050
C      7.82711401    4.30934246   18.15625389
H      6.63672885    3.86044581   19.68116941
H      8.12868259    3.38388954   17.65567113
H      8.56140924    5.09475346   18.15973121
H      6.88564730    4.74363857   17.62990003
O      7.57140224    3.96769957   19.56341681
C      3.09414987    4.54474678   26.82188313
H      4.18185097    3.45733835   25.64104572
H      3.66897179    4.00156710   27.61908804
H      3.19334179    5.58960596   26.97798970
H      2.11281357    4.34270508   27.03607046
O      3.46686153    4.18236103   25.48986336
C     -4.24304087   11.80002661   26.77596989
H     -5.60294262   11.90607738   25.31866737
H     -3.33656599   11.16541776   26.94968619
H     -4.17798143   12.89237498   26.55266324
H     -4.89392510   11.76473115   27.66375164
O     -4.92331464   11.20245240   25.68684649
C     -0.04990577   11.21520468   25.54530683
H     -0.15509073   12.26884152   23.89424590
H     -0.14089838   11.61626383   26.54971820
H     -0.98028488   10.67728828   25.28955796
H      0.89252922   10.71700191   25.46261335
O      0.04142073   12.48569847   24.82755365
C      3.14044603    0.33025410   30.24283047
H      1.36415033    0.69882575   30.83363480
H      3.61971426   -0.30361403   29.40393858
H      3.59532369    1.33954649   30.11099519
H      3.53837407   -0.02282979   31.24896119
O      1.76028496    0.40115835   29.98593436
C      5.38466119   10.84689412   38.15079661
H      3.45849005   10.26012416   38.69610037
H      5.33705601   11.28570378   39.15811052
H      5.68430779   11.44352627   37.33305164
H      5.78131937    9.78665816   38.21995443
O      3.94605934   10.63199973   37.91813386
C     -4.56338545   10.42322630   38.45044462
H     -3.24105044    9.61510384   37.39546038
H     -4.17315610   11.47182738   38.54181902
H     -5.25579357   10.40014373   37.55306157
H     -5.16313652   10.15202867   39.27451340
O     -3.51542864    9.43552563   38.35126843
C      2.74142325    4.59777818   35.27233544
H      3.38558460    4.55742526   33.49122462
H      2.22923824    3.61338640   35.37996900
H      1.87488083    5.34558431   35.12426709
H      3.21128087    4.78025131   36.26140320
O      3.78129177    4.85341756   34.32751185
C      6.61926722    0.73769322   41.60467303
H      7.91950798    1.72181887   40.84662452
H      7.13102452    0.77895824   42.60541923
H      6.70575167   -0.33124165   41.09429279
H      5.50344897    0.72417490   41.63594976
O      7.01721612    1.86160052   40.74983846
C      6.75502913    5.63686545   41.81239933
H      5.78292981    7.26235280   41.54535296
H      6.70046388    5.16185646   40.83952336
H      7.79201703    6.06249115   41.91910330
H      6.67193669    4.77036449   42.43170717
O      5.71176051    6.57025680   42.16706088
C     13.25640833   -0.09549537   23.54012756
H     13.67743142    1.54464495   24.65057092
H     12.46592116   -0.94649432   23.78025475
H     12.69140178    0.52656766   22.81898851
H     14.10333490   -0.56751141   22.90048571
O     13.55197970    0.56257466   24.76083318
C     -1.49857652    9.13480947   28.51241240
H      0.30800438    8.50459392   27.89421423